V -t * -v 1.0a5 -a 0
A -t * -n 1 -p 0 -o 0x7fffffff -c 30 -a 1
A -t * -h 1 -m 1073741823 -s 0
c -t * -i 1 -n Red
c -t * -i 2 -n Blue
n -t * -a 4 -s 4 -S UP -v circle -c black -i black
n -t * -a 0 -s 0 -S UP -v circle -c black -i black
n -t * -a 5 -s 5 -S UP -v circle -c black -i black
n -t * -a 1 -s 1 -S UP -v circle -c black -i black
n -t * -a 2 -s 2 -S UP -v circle -c black -i black
n -t * -a 3 -s 3 -S UP -v circle -c black -i black
l -t * -s 0 -d 2 -S UP -r 1000000 -D 0.01 -c black
l -t * -s 1 -d 2 -S UP -r 1000000 -D 0.01 -c black
l -t * -s 2 -d 3 -S UP -r 1000000 -D 0.01 -c black
l -t * -s 3 -d 4 -S UP -r 1000000 -D 0.01 -c black
l -t * -s 3 -d 5 -S UP -r 1000000 -D 0.01 -c black
+ -t 1 -s 0 -d 2 -p cbr -e 500 -c 1 -i 0 -a 1 -x {0.0 4.0 0 ------- null}
- -t 1 -s 0 -d 2 -p cbr -e 500 -c 1 -i 0 -a 1 -x {0.0 4.0 0 ------- null}
h -t 1 -s 0 -d 2 -p cbr -e 500 -c 1 -i 0 -a 1 -x {0.0 4.0 -1 ------- null}
+ -t 1.005 -s 0 -d 2 -p cbr -e 500 -c 1 -i 1 -a 1 -x {0.0 4.0 1 ------- null}
- -t 1.005 -s 0 -d 2 -p cbr -e 500 -c 1 -i 1 -a 1 -x {0.0 4.0 1 ------- null}
h -t 1.005 -s 0 -d 2 -p cbr -e 500 -c 1 -i 1 -a 1 -x {0.0 4.0 -1 ------- null}
+ -t 1.01 -s 0 -d 2 -p cbr -e 500 -c 1 -i 2 -a 1 -x {0.0 4.0 2 ------- null}
- -t 1.01 -s 0 -d 2 -p cbr -e 500 -c 1 -i 2 -a 1 -x {0.0 4.0 2 ------- null}
h -t 1.01 -s 0 -d 2 -p cbr -e 500 -c 1 -i 2 -a 1 -x {0.0 4.0 -1 ------- null}
r -t 1.014 -s 0 -d 2 -p cbr -e 500 -c 1 -i 0 -a 1 -x {0.0 4.0 0 ------- null}
+ -t 1.014 -s 2 -d 3 -p cbr -e 500 -c 1 -i 0 -a 1 -x {0.0 4.0 0 ------- null}
- -t 1.014 -s 2 -d 3 -p cbr -e 500 -c 1 -i 0 -a 1 -x {0.0 4.0 0 ------- null}
h -t 1.014 -s 2 -d 3 -p cbr -e 500 -c 1 -i 0 -a 1 -x {0.0 4.0 -1 ------- null}
+ -t 1.015 -s 0 -d 2 -p cbr -e 500 -c 1 -i 3 -a 1 -x {0.0 4.0 3 ------- null}
- -t 1.015 -s 0 -d 2 -p cbr -e 500 -c 1 -i 3 -a 1 -x {0.0 4.0 3 ------- null}
h -t 1.015 -s 0 -d 2 -p cbr -e 500 -c 1 -i 3 -a 1 -x {0.0 4.0 -1 ------- null}
r -t 1.019 -s 0 -d 2 -p cbr -e 500 -c 1 -i 1 -a 1 -x {0.0 4.0 1 ------- null}
+ -t 1.019 -s 2 -d 3 -p cbr -e 500 -c 1 -i 1 -a 1 -x {0.0 4.0 1 ------- null}
- -t 1.019 -s 2 -d 3 -p cbr -e 500 -c 1 -i 1 -a 1 -x {0.0 4.0 1 ------- null}
h -t 1.019 -s 2 -d 3 -p cbr -e 500 -c 1 -i 1 -a 1 -x {0.0 4.0 -1 ------- null}
+ -t 1.02 -s 0 -d 2 -p cbr -e 500 -c 1 -i 4 -a 1 -x {0.0 4.0 4 ------- null}
- -t 1.02 -s 0 -d 2 -p cbr -e 500 -c 1 -i 4 -a 1 -x {0.0 4.0 4 ------- null}
h -t 1.02 -s 0 -d 2 -p cbr -e 500 -c 1 -i 4 -a 1 -x {0.0 4.0 -1 ------- null}
r -t 1.024 -s 0 -d 2 -p cbr -e 500 -c 1 -i 2 -a 1 -x {0.0 4.0 2 ------- null}
+ -t 1.024 -s 2 -d 3 -p cbr -e 500 -c 1 -i 2 -a 1 -x {0.0 4.0 2 ------- null}
- -t 1.024 -s 2 -d 3 -p cbr -e 500 -c 1 -i 2 -a 1 -x {0.0 4.0 2 ------- null}
h -t 1.024 -s 2 -d 3 -p cbr -e 500 -c 1 -i 2 -a 1 -x {0.0 4.0 -1 ------- null}
+ -t 1.025 -s 0 -d 2 -p cbr -e 500 -c 1 -i 5 -a 1 -x {0.0 4.0 5 ------- null}
- -t 1.025 -s 0 -d 2 -p cbr -e 500 -c 1 -i 5 -a 1 -x {0.0 4.0 5 ------- null}
h -t 1.025 -s 0 -d 2 -p cbr -e 500 -c 1 -i 5 -a 1 -x {0.0 4.0 -1 ------- null}
r -t 1.028 -s 2 -d 3 -p cbr -e 500 -c 1 -i 0 -a 1 -x {0.0 4.0 0 ------- null}
+ -t 1.028 -s 3 -d 4 -p cbr -e 500 -c 1 -i 0 -a 1 -x {0.0 4.0 0 ------- null}
- -t 1.028 -s 3 -d 4 -p cbr -e 500 -c 1 -i 0 -a 1 -x {0.0 4.0 0 ------- null}
h -t 1.028 -s 3 -d 4 -p cbr -e 500 -c 1 -i 0 -a 1 -x {0.0 4.0 -1 ------- null}
r -t 1.029 -s 0 -d 2 -p cbr -e 500 -c 1 -i 3 -a 1 -x {0.0 4.0 3 ------- null}
+ -t 1.029 -s 2 -d 3 -p cbr -e 500 -c 1 -i 3 -a 1 -x {0.0 4.0 3 ------- null}
- -t 1.029 -s 2 -d 3 -p cbr -e 500 -c 1 -i 3 -a 1 -x {0.0 4.0 3 ------- null}
h -t 1.029 -s 2 -d 3 -p cbr -e 500 -c 1 -i 3 -a 1 -x {0.0 4.0 -1 ------- null}
+ -t 1.03 -s 0 -d 2 -p cbr -e 500 -c 1 -i 6 -a 1 -x {0.0 4.0 6 ------- null}
- -t 1.03 -s 0 -d 2 -p cbr -e 500 -c 1 -i 6 -a 1 -x {0.0 4.0 6 ------- null}
h -t 1.03 -s 0 -d 2 -p cbr -e 500 -c 1 -i 6 -a 1 -x {0.0 4.0 -1 ------- null}
r -t 1.033 -s 2 -d 3 -p cbr -e 500 -c 1 -i 1 -a 1 -x {0.0 4.0 1 ------- null}
+ -t 1.033 -s 3 -d 4 -p cbr -e 500 -c 1 -i 1 -a 1 -x {0.0 4.0 1 ------- null}
- -t 1.033 -s 3 -d 4 -p cbr -e 500 -c 1 -i 1 -a 1 -x {0.0 4.0 1 ------- null}
h -t 1.033 -s 3 -d 4 -p cbr -e 500 -c 1 -i 1 -a 1 -x {0.0 4.0 -1 ------- null}
r -t 1.034 -s 0 -d 2 -p cbr -e 500 -c 1 -i 4 -a 1 -x {0.0 4.0 4 ------- null}
+ -t 1.034 -s 2 -d 3 -p cbr -e 500 -c 1 -i 4 -a 1 -x {0.0 4.0 4 ------- null}
- -t 1.034 -s 2 -d 3 -p cbr -e 500 -c 1 -i 4 -a 1 -x {0.0 4.0 4 ------- null}
h -t 1.034 -s 2 -d 3 -p cbr -e 500 -c 1 -i 4 -a 1 -x {0.0 4.0 -1 ------- null}
+ -t 1.035 -s 0 -d 2 -p cbr -e 500 -c 1 -i 7 -a 1 -x {0.0 4.0 7 ------- null}
- -t 1.035 -s 0 -d 2 -p cbr -e 500 -c 1 -i 7 -a 1 -x {0.0 4.0 7 ------- null}
h -t 1.035 -s 0 -d 2 -p cbr -e 500 -c 1 -i 7 -a 1 -x {0.0 4.0 -1 ------- null}
r -t 1.038 -s 2 -d 3 -p cbr -e 500 -c 1 -i 2 -a 1 -x {0.0 4.0 2 ------- null}
+ -t 1.038 -s 3 -d 4 -p cbr -e 500 -c 1 -i 2 -a 1 -x {0.0 4.0 2 ------- null}
- -t 1.038 -s 3 -d 4 -p cbr -e 500 -c 1 -i 2 -a 1 -x {0.0 4.0 2 ------- null}
h -t 1.038 -s 3 -d 4 -p cbr -e 500 -c 1 -i 2 -a 1 -x {0.0 4.0 -1 ------- null}
r -t 1.039 -s 0 -d 2 -p cbr -e 500 -c 1 -i 5 -a 1 -x {0.0 4.0 5 ------- null}
+ -t 1.039 -s 2 -d 3 -p cbr -e 500 -c 1 -i 5 -a 1 -x {0.0 4.0 5 ------- null}
- -t 1.039 -s 2 -d 3 -p cbr -e 500 -c 1 -i 5 -a 1 -x {0.0 4.0 5 ------- null}
h -t 1.039 -s 2 -d 3 -p cbr -e 500 -c 1 -i 5 -a 1 -x {0.0 4.0 -1 ------- null}
+ -t 1.04 -s 0 -d 2 -p cbr -e 500 -c 1 -i 8 -a 1 -x {0.0 4.0 8 ------- null}
- -t 1.04 -s 0 -d 2 -p cbr -e 500 -c 1 -i 8 -a 1 -x {0.0 4.0 8 ------- null}
h -t 1.04 -s 0 -d 2 -p cbr -e 500 -c 1 -i 8 -a 1 -x {0.0 4.0 -1 ------- null}
r -t 1.042 -s 3 -d 4 -p cbr -e 500 -c 1 -i 0 -a 1 -x {0.0 4.0 0 ------- null}
r -t 1.043 -s 2 -d 3 -p cbr -e 500 -c 1 -i 3 -a 1 -x {0.0 4.0 3 ------- null}
+ -t 1.043 -s 3 -d 4 -p cbr -e 500 -c 1 -i 3 -a 1 -x {0.0 4.0 3 ------- null}
- -t 1.043 -s 3 -d 4 -p cbr -e 500 -c 1 -i 3 -a 1 -x {0.0 4.0 3 ------- null}
h -t 1.043 -s 3 -d 4 -p cbr -e 500 -c 1 -i 3 -a 1 -x {0.0 4.0 -1 ------- null}
r -t 1.044 -s 0 -d 2 -p cbr -e 500 -c 1 -i 6 -a 1 -x {0.0 4.0 6 ------- null}
+ -t 1.044 -s 2 -d 3 -p cbr -e 500 -c 1 -i 6 -a 1 -x {0.0 4.0 6 ------- null}
- -t 1.044 -s 2 -d 3 -p cbr -e 500 -c 1 -i 6 -a 1 -x {0.0 4.0 6 ------- null}
h -t 1.044 -s 2 -d 3 -p cbr -e 500 -c 1 -i 6 -a 1 -x {0.0 4.0 -1 ------- null}
+ -t 1.045 -s 0 -d 2 -p cbr -e 500 -c 1 -i 9 -a 1 -x {0.0 4.0 9 ------- null}
- -t 1.045 -s 0 -d 2 -p cbr -e 500 -c 1 -i 9 -a 1 -x {0.0 4.0 9 ------- null}
h -t 1.045 -s 0 -d 2 -p cbr -e 500 -c 1 -i 9 -a 1 -x {0.0 4.0 -1 ------- null}
r -t 1.047 -s 3 -d 4 -p cbr -e 500 -c 1 -i 1 -a 1 -x {0.0 4.0 1 ------- null}
r -t 1.048 -s 2 -d 3 -p cbr -e 500 -c 1 -i 4 -a 1 -x {0.0 4.0 4 ------- null}
+ -t 1.048 -s 3 -d 4 -p cbr -e 500 -c 1 -i 4 -a 1 -x {0.0 4.0 4 ------- null}
- -t 1.048 -s 3 -d 4 -p cbr -e 500 -c 1 -i 4 -a 1 -x {0.0 4.0 4 ------- null}
h -t 1.048 -s 3 -d 4 -p cbr -e 500 -c 1 -i 4 -a 1 -x {0.0 4.0 -1 ------- null}
r -t 1.049 -s 0 -d 2 -p cbr -e 500 -c 1 -i 7 -a 1 -x {0.0 4.0 7 ------- null}
+ -t 1.049 -s 2 -d 3 -p cbr -e 500 -c 1 -i 7 -a 1 -x {0.0 4.0 7 ------- null}
- -t 1.049 -s 2 -d 3 -p cbr -e 500 -c 1 -i 7 -a 1 -x {0.0 4.0 7 ------- null}
h -t 1.049 -s 2 -d 3 -p cbr -e 500 -c 1 -i 7 -a 1 -x {0.0 4.0 -1 ------- null}
+ -t 1.05 -s 0 -d 2 -p cbr -e 500 -c 1 -i 10 -a 1 -x {0.0 4.0 10 ------- null}
- -t 1.05 -s 0 -d 2 -p cbr -e 500 -c 1 -i 10 -a 1 -x {0.0 4.0 10 ------- null}
h -t 1.05 -s 0 -d 2 -p cbr -e 500 -c 1 -i 10 -a 1 -x {0.0 4.0 -1 ------- null}
r -t 1.052 -s 3 -d 4 -p cbr -e 500 -c 1 -i 2 -a 1 -x {0.0 4.0 2 ------- null}
r -t 1.053 -s 2 -d 3 -p cbr -e 500 -c 1 -i 5 -a 1 -x {0.0 4.0 5 ------- null}
+ -t 1.053 -s 3 -d 4 -p cbr -e 500 -c 1 -i 5 -a 1 -x {0.0 4.0 5 ------- null}
- -t 1.053 -s 3 -d 4 -p cbr -e 500 -c 1 -i 5 -a 1 -x {0.0 4.0 5 ------- null}
h -t 1.053 -s 3 -d 4 -p cbr -e 500 -c 1 -i 5 -a 1 -x {0.0 4.0 -1 ------- null}
r -t 1.054 -s 0 -d 2 -p cbr -e 500 -c 1 -i 8 -a 1 -x {0.0 4.0 8 ------- null}
+ -t 1.054 -s 2 -d 3 -p cbr -e 500 -c 1 -i 8 -a 1 -x {0.0 4.0 8 ------- null}
- -t 1.054 -s 2 -d 3 -p cbr -e 500 -c 1 -i 8 -a 1 -x {0.0 4.0 8 ------- null}
h -t 1.054 -s 2 -d 3 -p cbr -e 500 -c 1 -i 8 -a 1 -x {0.0 4.0 -1 ------- null}
+ -t 1.055 -s 0 -d 2 -p cbr -e 500 -c 1 -i 11 -a 1 -x {0.0 4.0 11 ------- null}
- -t 1.055 -s 0 -d 2 -p cbr -e 500 -c 1 -i 11 -a 1 -x {0.0 4.0 11 ------- null}
h -t 1.055 -s 0 -d 2 -p cbr -e 500 -c 1 -i 11 -a 1 -x {0.0 4.0 -1 ------- null}
r -t 1.057 -s 3 -d 4 -p cbr -e 500 -c 1 -i 3 -a 1 -x {0.0 4.0 3 ------- null}
r -t 1.058 -s 2 -d 3 -p cbr -e 500 -c 1 -i 6 -a 1 -x {0.0 4.0 6 ------- null}
+ -t 1.058 -s 3 -d 4 -p cbr -e 500 -c 1 -i 6 -a 1 -x {0.0 4.0 6 ------- null}
- -t 1.058 -s 3 -d 4 -p cbr -e 500 -c 1 -i 6 -a 1 -x {0.0 4.0 6 ------- null}
h -t 1.058 -s 3 -d 4 -p cbr -e 500 -c 1 -i 6 -a 1 -x {0.0 4.0 -1 ------- null}
r -t 1.059 -s 0 -d 2 -p cbr -e 500 -c 1 -i 9 -a 1 -x {0.0 4.0 9 ------- null}
+ -t 1.059 -s 2 -d 3 -p cbr -e 500 -c 1 -i 9 -a 1 -x {0.0 4.0 9 ------- null}
- -t 1.059 -s 2 -d 3 -p cbr -e 500 -c 1 -i 9 -a 1 -x {0.0 4.0 9 ------- null}
h -t 1.059 -s 2 -d 3 -p cbr -e 500 -c 1 -i 9 -a 1 -x {0.0 4.0 -1 ------- null}
+ -t 1.06 -s 0 -d 2 -p cbr -e 500 -c 1 -i 12 -a 1 -x {0.0 4.0 12 ------- null}
- -t 1.06 -s 0 -d 2 -p cbr -e 500 -c 1 -i 12 -a 1 -x {0.0 4.0 12 ------- null}
h -t 1.06 -s 0 -d 2 -p cbr -e 500 -c 1 -i 12 -a 1 -x {0.0 4.0 -1 ------- null}
r -t 1.062 -s 3 -d 4 -p cbr -e 500 -c 1 -i 4 -a 1 -x {0.0 4.0 4 ------- null}
r -t 1.063 -s 2 -d 3 -p cbr -e 500 -c 1 -i 7 -a 1 -x {0.0 4.0 7 ------- null}
+ -t 1.063 -s 3 -d 4 -p cbr -e 500 -c 1 -i 7 -a 1 -x {0.0 4.0 7 ------- null}
- -t 1.063 -s 3 -d 4 -p cbr -e 500 -c 1 -i 7 -a 1 -x {0.0 4.0 7 ------- null}
h -t 1.063 -s 3 -d 4 -p cbr -e 500 -c 1 -i 7 -a 1 -x {0.0 4.0 -1 ------- null}
r -t 1.064 -s 0 -d 2 -p cbr -e 500 -c 1 -i 10 -a 1 -x {0.0 4.0 10 ------- null}
+ -t 1.064 -s 2 -d 3 -p cbr -e 500 -c 1 -i 10 -a 1 -x {0.0 4.0 10 ------- null}
- -t 1.064 -s 2 -d 3 -p cbr -e 500 -c 1 -i 10 -a 1 -x {0.0 4.0 10 ------- null}
h -t 1.064 -s 2 -d 3 -p cbr -e 500 -c 1 -i 10 -a 1 -x {0.0 4.0 -1 ------- null}
+ -t 1.065 -s 0 -d 2 -p cbr -e 500 -c 1 -i 13 -a 1 -x {0.0 4.0 13 ------- null}
- -t 1.065 -s 0 -d 2 -p cbr -e 500 -c 1 -i 13 -a 1 -x {0.0 4.0 13 ------- null}
h -t 1.065 -s 0 -d 2 -p cbr -e 500 -c 1 -i 13 -a 1 -x {0.0 4.0 -1 ------- null}
r -t 1.067 -s 3 -d 4 -p cbr -e 500 -c 1 -i 5 -a 1 -x {0.0 4.0 5 ------- null}
r -t 1.068 -s 2 -d 3 -p cbr -e 500 -c 1 -i 8 -a 1 -x {0.0 4.0 8 ------- null}
+ -t 1.068 -s 3 -d 4 -p cbr -e 500 -c 1 -i 8 -a 1 -x {0.0 4.0 8 ------- null}
- -t 1.068 -s 3 -d 4 -p cbr -e 500 -c 1 -i 8 -a 1 -x {0.0 4.0 8 ------- null}
h -t 1.068 -s 3 -d 4 -p cbr -e 500 -c 1 -i 8 -a 1 -x {0.0 4.0 -1 ------- null}
r -t 1.069 -s 0 -d 2 -p cbr -e 500 -c 1 -i 11 -a 1 -x {0.0 4.0 11 ------- null}
+ -t 1.069 -s 2 -d 3 -p cbr -e 500 -c 1 -i 11 -a 1 -x {0.0 4.0 11 ------- null}
- -t 1.069 -s 2 -d 3 -p cbr -e 500 -c 1 -i 11 -a 1 -x {0.0 4.0 11 ------- null}
h -t 1.069 -s 2 -d 3 -p cbr -e 500 -c 1 -i 11 -a 1 -x {0.0 4.0 -1 ------- null}
+ -t 1.07 -s 0 -d 2 -p cbr -e 500 -c 1 -i 14 -a 1 -x {0.0 4.0 14 ------- null}
- -t 1.07 -s 0 -d 2 -p cbr -e 500 -c 1 -i 14 -a 1 -x {0.0 4.0 14 ------- null}
h -t 1.07 -s 0 -d 2 -p cbr -e 500 -c 1 -i 14 -a 1 -x {0.0 4.0 -1 ------- null}
r -t 1.072 -s 3 -d 4 -p cbr -e 500 -c 1 -i 6 -a 1 -x {0.0 4.0 6 ------- null}
r -t 1.073 -s 2 -d 3 -p cbr -e 500 -c 1 -i 9 -a 1 -x {0.0 4.0 9 ------- null}
+ -t 1.073 -s 3 -d 4 -p cbr -e 500 -c 1 -i 9 -a 1 -x {0.0 4.0 9 ------- null}
- -t 1.073 -s 3 -d 4 -p cbr -e 500 -c 1 -i 9 -a 1 -x {0.0 4.0 9 ------- null}
h -t 1.073 -s 3 -d 4 -p cbr -e 500 -c 1 -i 9 -a 1 -x {0.0 4.0 -1 ------- null}
r -t 1.074 -s 0 -d 2 -p cbr -e 500 -c 1 -i 12 -a 1 -x {0.0 4.0 12 ------- null}
+ -t 1.074 -s 2 -d 3 -p cbr -e 500 -c 1 -i 12 -a 1 -x {0.0 4.0 12 ------- null}
- -t 1.074 -s 2 -d 3 -p cbr -e 500 -c 1 -i 12 -a 1 -x {0.0 4.0 12 ------- null}
h -t 1.074 -s 2 -d 3 -p cbr -e 500 -c 1 -i 12 -a 1 -x {0.0 4.0 -1 ------- null}
+ -t 1.075 -s 0 -d 2 -p cbr -e 500 -c 1 -i 15 -a 1 -x {0.0 4.0 15 ------- null}
- -t 1.075 -s 0 -d 2 -p cbr -e 500 -c 1 -i 15 -a 1 -x {0.0 4.0 15 ------- null}
h -t 1.075 -s 0 -d 2 -p cbr -e 500 -c 1 -i 15 -a 1 -x {0.0 4.0 -1 ------- null}
r -t 1.077 -s 3 -d 4 -p cbr -e 500 -c 1 -i 7 -a 1 -x {0.0 4.0 7 ------- null}
r -t 1.078 -s 2 -d 3 -p cbr -e 500 -c 1 -i 10 -a 1 -x {0.0 4.0 10 ------- null}
+ -t 1.078 -s 3 -d 4 -p cbr -e 500 -c 1 -i 10 -a 1 -x {0.0 4.0 10 ------- null}
- -t 1.078 -s 3 -d 4 -p cbr -e 500 -c 1 -i 10 -a 1 -x {0.0 4.0 10 ------- null}
h -t 1.078 -s 3 -d 4 -p cbr -e 500 -c 1 -i 10 -a 1 -x {0.0 4.0 -1 ------- null}
r -t 1.079 -s 0 -d 2 -p cbr -e 500 -c 1 -i 13 -a 1 -x {0.0 4.0 13 ------- null}
+ -t 1.079 -s 2 -d 3 -p cbr -e 500 -c 1 -i 13 -a 1 -x {0.0 4.0 13 ------- null}
- -t 1.079 -s 2 -d 3 -p cbr -e 500 -c 1 -i 13 -a 1 -x {0.0 4.0 13 ------- null}
h -t 1.079 -s 2 -d 3 -p cbr -e 500 -c 1 -i 13 -a 1 -x {0.0 4.0 -1 ------- null}
+ -t 1.08 -s 0 -d 2 -p cbr -e 500 -c 1 -i 16 -a 1 -x {0.0 4.0 16 ------- null}
- -t 1.08 -s 0 -d 2 -p cbr -e 500 -c 1 -i 16 -a 1 -x {0.0 4.0 16 ------- null}
h -t 1.08 -s 0 -d 2 -p cbr -e 500 -c 1 -i 16 -a 1 -x {0.0 4.0 -1 ------- null}
r -t 1.082 -s 3 -d 4 -p cbr -e 500 -c 1 -i 8 -a 1 -x {0.0 4.0 8 ------- null}
r -t 1.083 -s 2 -d 3 -p cbr -e 500 -c 1 -i 11 -a 1 -x {0.0 4.0 11 ------- null}
+ -t 1.083 -s 3 -d 4 -p cbr -e 500 -c 1 -i 11 -a 1 -x {0.0 4.0 11 ------- null}
- -t 1.083 -s 3 -d 4 -p cbr -e 500 -c 1 -i 11 -a 1 -x {0.0 4.0 11 ------- null}
h -t 1.083 -s 3 -d 4 -p cbr -e 500 -c 1 -i 11 -a 1 -x {0.0 4.0 -1 ------- null}
r -t 1.084 -s 0 -d 2 -p cbr -e 500 -c 1 -i 14 -a 1 -x {0.0 4.0 14 ------- null}
+ -t 1.084 -s 2 -d 3 -p cbr -e 500 -c 1 -i 14 -a 1 -x {0.0 4.0 14 ------- null}
- -t 1.084 -s 2 -d 3 -p cbr -e 500 -c 1 -i 14 -a 1 -x {0.0 4.0 14 ------- null}
h -t 1.084 -s 2 -d 3 -p cbr -e 500 -c 1 -i 14 -a 1 -x {0.0 4.0 -1 ------- null}
+ -t 1.085 -s 0 -d 2 -p cbr -e 500 -c 1 -i 17 -a 1 -x {0.0 4.0 17 ------- null}
- -t 1.085 -s 0 -d 2 -p cbr -e 500 -c 1 -i 17 -a 1 -x {0.0 4.0 17 ------- null}
h -t 1.085 -s 0 -d 2 -p cbr -e 500 -c 1 -i 17 -a 1 -x {0.0 4.0 -1 ------- null}
r -t 1.087 -s 3 -d 4 -p cbr -e 500 -c 1 -i 9 -a 1 -x {0.0 4.0 9 ------- null}
r -t 1.088 -s 2 -d 3 -p cbr -e 500 -c 1 -i 12 -a 1 -x {0.0 4.0 12 ------- null}
+ -t 1.088 -s 3 -d 4 -p cbr -e 500 -c 1 -i 12 -a 1 -x {0.0 4.0 12 ------- null}
- -t 1.088 -s 3 -d 4 -p cbr -e 500 -c 1 -i 12 -a 1 -x {0.0 4.0 12 ------- null}
h -t 1.088 -s 3 -d 4 -p cbr -e 500 -c 1 -i 12 -a 1 -x {0.0 4.0 -1 ------- null}
r -t 1.089 -s 0 -d 2 -p cbr -e 500 -c 1 -i 15 -a 1 -x {0.0 4.0 15 ------- null}
+ -t 1.089 -s 2 -d 3 -p cbr -e 500 -c 1 -i 15 -a 1 -x {0.0 4.0 15 ------- null}
- -t 1.089 -s 2 -d 3 -p cbr -e 500 -c 1 -i 15 -a 1 -x {0.0 4.0 15 ------- null}
h -t 1.089 -s 2 -d 3 -p cbr -e 500 -c 1 -i 15 -a 1 -x {0.0 4.0 -1 ------- null}
+ -t 1.09 -s 0 -d 2 -p cbr -e 500 -c 1 -i 18 -a 1 -x {0.0 4.0 18 ------- null}
- -t 1.09 -s 0 -d 2 -p cbr -e 500 -c 1 -i 18 -a 1 -x {0.0 4.0 18 ------- null}
h -t 1.09 -s 0 -d 2 -p cbr -e 500 -c 1 -i 18 -a 1 -x {0.0 4.0 -1 ------- null}
r -t 1.092 -s 3 -d 4 -p cbr -e 500 -c 1 -i 10 -a 1 -x {0.0 4.0 10 ------- null}
r -t 1.093 -s 2 -d 3 -p cbr -e 500 -c 1 -i 13 -a 1 -x {0.0 4.0 13 ------- null}
+ -t 1.093 -s 3 -d 4 -p cbr -e 500 -c 1 -i 13 -a 1 -x {0.0 4.0 13 ------- null}
- -t 1.093 -s 3 -d 4 -p cbr -e 500 -c 1 -i 13 -a 1 -x {0.0 4.0 13 ------- null}
h -t 1.093 -s 3 -d 4 -p cbr -e 500 -c 1 -i 13 -a 1 -x {0.0 4.0 -1 ------- null}
r -t 1.094 -s 0 -d 2 -p cbr -e 500 -c 1 -i 16 -a 1 -x {0.0 4.0 16 ------- null}
+ -t 1.094 -s 2 -d 3 -p cbr -e 500 -c 1 -i 16 -a 1 -x {0.0 4.0 16 ------- null}
- -t 1.094 -s 2 -d 3 -p cbr -e 500 -c 1 -i 16 -a 1 -x {0.0 4.0 16 ------- null}
h -t 1.094 -s 2 -d 3 -p cbr -e 500 -c 1 -i 16 -a 1 -x {0.0 4.0 -1 ------- null}
+ -t 1.095 -s 0 -d 2 -p cbr -e 500 -c 1 -i 19 -a 1 -x {0.0 4.0 19 ------- null}
- -t 1.095 -s 0 -d 2 -p cbr -e 500 -c 1 -i 19 -a 1 -x {0.0 4.0 19 ------- null}
h -t 1.095 -s 0 -d 2 -p cbr -e 500 -c 1 -i 19 -a 1 -x {0.0 4.0 -1 ------- null}
r -t 1.097 -s 3 -d 4 -p cbr -e 500 -c 1 -i 11 -a 1 -x {0.0 4.0 11 ------- null}
r -t 1.098 -s 2 -d 3 -p cbr -e 500 -c 1 -i 14 -a 1 -x {0.0 4.0 14 ------- null}
+ -t 1.098 -s 3 -d 4 -p cbr -e 500 -c 1 -i 14 -a 1 -x {0.0 4.0 14 ------- null}
- -t 1.098 -s 3 -d 4 -p cbr -e 500 -c 1 -i 14 -a 1 -x {0.0 4.0 14 ------- null}
h -t 1.098 -s 3 -d 4 -p cbr -e 500 -c 1 -i 14 -a 1 -x {0.0 4.0 -1 ------- null}
r -t 1.099 -s 0 -d 2 -p cbr -e 500 -c 1 -i 17 -a 1 -x {0.0 4.0 17 ------- null}
+ -t 1.099 -s 2 -d 3 -p cbr -e 500 -c 1 -i 17 -a 1 -x {0.0 4.0 17 ------- null}
- -t 1.099 -s 2 -d 3 -p cbr -e 500 -c 1 -i 17 -a 1 -x {0.0 4.0 17 ------- null}
h -t 1.099 -s 2 -d 3 -p cbr -e 500 -c 1 -i 17 -a 1 -x {0.0 4.0 -1 ------- null}
+ -t 1.1 -s 0 -d 2 -p cbr -e 500 -c 1 -i 20 -a 1 -x {0.0 4.0 20 ------- null}
- -t 1.1 -s 0 -d 2 -p cbr -e 500 -c 1 -i 20 -a 1 -x {0.0 4.0 20 ------- null}
h -t 1.1 -s 0 -d 2 -p cbr -e 500 -c 1 -i 20 -a 1 -x {0.0 4.0 -1 ------- null}
r -t 1.102 -s 3 -d 4 -p cbr -e 500 -c 1 -i 12 -a 1 -x {0.0 4.0 12 ------- null}
r -t 1.103 -s 2 -d 3 -p cbr -e 500 -c 1 -i 15 -a 1 -x {0.0 4.0 15 ------- null}
+ -t 1.103 -s 3 -d 4 -p cbr -e 500 -c 1 -i 15 -a 1 -x {0.0 4.0 15 ------- null}
- -t 1.103 -s 3 -d 4 -p cbr -e 500 -c 1 -i 15 -a 1 -x {0.0 4.0 15 ------- null}
h -t 1.103 -s 3 -d 4 -p cbr -e 500 -c 1 -i 15 -a 1 -x {0.0 4.0 -1 ------- null}
r -t 1.104 -s 0 -d 2 -p cbr -e 500 -c 1 -i 18 -a 1 -x {0.0 4.0 18 ------- null}
+ -t 1.104 -s 2 -d 3 -p cbr -e 500 -c 1 -i 18 -a 1 -x {0.0 4.0 18 ------- null}
- -t 1.104 -s 2 -d 3 -p cbr -e 500 -c 1 -i 18 -a 1 -x {0.0 4.0 18 ------- null}
h -t 1.104 -s 2 -d 3 -p cbr -e 500 -c 1 -i 18 -a 1 -x {0.0 4.0 -1 ------- null}
+ -t 1.105 -s 0 -d 2 -p cbr -e 500 -c 1 -i 21 -a 1 -x {0.0 4.0 21 ------- null}
- -t 1.105 -s 0 -d 2 -p cbr -e 500 -c 1 -i 21 -a 1 -x {0.0 4.0 21 ------- null}
h -t 1.105 -s 0 -d 2 -p cbr -e 500 -c 1 -i 21 -a 1 -x {0.0 4.0 -1 ------- null}
r -t 1.107 -s 3 -d 4 -p cbr -e 500 -c 1 -i 13 -a 1 -x {0.0 4.0 13 ------- null}
r -t 1.108 -s 2 -d 3 -p cbr -e 500 -c 1 -i 16 -a 1 -x {0.0 4.0 16 ------- null}
+ -t 1.108 -s 3 -d 4 -p cbr -e 500 -c 1 -i 16 -a 1 -x {0.0 4.0 16 ------- null}
- -t 1.108 -s 3 -d 4 -p cbr -e 500 -c 1 -i 16 -a 1 -x {0.0 4.0 16 ------- null}
h -t 1.108 -s 3 -d 4 -p cbr -e 500 -c 1 -i 16 -a 1 -x {0.0 4.0 -1 ------- null}
r -t 1.109 -s 0 -d 2 -p cbr -e 500 -c 1 -i 19 -a 1 -x {0.0 4.0 19 ------- null}
+ -t 1.109 -s 2 -d 3 -p cbr -e 500 -c 1 -i 19 -a 1 -x {0.0 4.0 19 ------- null}
- -t 1.109 -s 2 -d 3 -p cbr -e 500 -c 1 -i 19 -a 1 -x {0.0 4.0 19 ------- null}
h -t 1.109 -s 2 -d 3 -p cbr -e 500 -c 1 -i 19 -a 1 -x {0.0 4.0 -1 ------- null}
+ -t 1.11 -s 0 -d 2 -p cbr -e 500 -c 1 -i 22 -a 1 -x {0.0 4.0 22 ------- null}
- -t 1.11 -s 0 -d 2 -p cbr -e 500 -c 1 -i 22 -a 1 -x {0.0 4.0 22 ------- null}
h -t 1.11 -s 0 -d 2 -p cbr -e 500 -c 1 -i 22 -a 1 -x {0.0 4.0 -1 ------- null}
r -t 1.112 -s 3 -d 4 -p cbr -e 500 -c 1 -i 14 -a 1 -x {0.0 4.0 14 ------- null}
r -t 1.113 -s 2 -d 3 -p cbr -e 500 -c 1 -i 17 -a 1 -x {0.0 4.0 17 ------- null}
+ -t 1.113 -s 3 -d 4 -p cbr -e 500 -c 1 -i 17 -a 1 -x {0.0 4.0 17 ------- null}
- -t 1.113 -s 3 -d 4 -p cbr -e 500 -c 1 -i 17 -a 1 -x {0.0 4.0 17 ------- null}
h -t 1.113 -s 3 -d 4 -p cbr -e 500 -c 1 -i 17 -a 1 -x {0.0 4.0 -1 ------- null}
r -t 1.114 -s 0 -d 2 -p cbr -e 500 -c 1 -i 20 -a 1 -x {0.0 4.0 20 ------- null}
+ -t 1.114 -s 2 -d 3 -p cbr -e 500 -c 1 -i 20 -a 1 -x {0.0 4.0 20 ------- null}
- -t 1.114 -s 2 -d 3 -p cbr -e 500 -c 1 -i 20 -a 1 -x {0.0 4.0 20 ------- null}
h -t 1.114 -s 2 -d 3 -p cbr -e 500 -c 1 -i 20 -a 1 -x {0.0 4.0 -1 ------- null}
+ -t 1.115 -s 0 -d 2 -p cbr -e 500 -c 1 -i 23 -a 1 -x {0.0 4.0 23 ------- null}
- -t 1.115 -s 0 -d 2 -p cbr -e 500 -c 1 -i 23 -a 1 -x {0.0 4.0 23 ------- null}
h -t 1.115 -s 0 -d 2 -p cbr -e 500 -c 1 -i 23 -a 1 -x {0.0 4.0 -1 ------- null}
r -t 1.117 -s 3 -d 4 -p cbr -e 500 -c 1 -i 15 -a 1 -x {0.0 4.0 15 ------- null}
r -t 1.118 -s 2 -d 3 -p cbr -e 500 -c 1 -i 18 -a 1 -x {0.0 4.0 18 ------- null}
+ -t 1.118 -s 3 -d 4 -p cbr -e 500 -c 1 -i 18 -a 1 -x {0.0 4.0 18 ------- null}
- -t 1.118 -s 3 -d 4 -p cbr -e 500 -c 1 -i 18 -a 1 -x {0.0 4.0 18 ------- null}
h -t 1.118 -s 3 -d 4 -p cbr -e 500 -c 1 -i 18 -a 1 -x {0.0 4.0 -1 ------- null}
r -t 1.119 -s 0 -d 2 -p cbr -e 500 -c 1 -i 21 -a 1 -x {0.0 4.0 21 ------- null}
+ -t 1.119 -s 2 -d 3 -p cbr -e 500 -c 1 -i 21 -a 1 -x {0.0 4.0 21 ------- null}
- -t 1.119 -s 2 -d 3 -p cbr -e 500 -c 1 -i 21 -a 1 -x {0.0 4.0 21 ------- null}
h -t 1.119 -s 2 -d 3 -p cbr -e 500 -c 1 -i 21 -a 1 -x {0.0 4.0 -1 ------- null}
+ -t 1.12 -s 0 -d 2 -p cbr -e 500 -c 1 -i 24 -a 1 -x {0.0 4.0 24 ------- null}
- -t 1.12 -s 0 -d 2 -p cbr -e 500 -c 1 -i 24 -a 1 -x {0.0 4.0 24 ------- null}
h -t 1.12 -s 0 -d 2 -p cbr -e 500 -c 1 -i 24 -a 1 -x {0.0 4.0 -1 ------- null}
r -t 1.122 -s 3 -d 4 -p cbr -e 500 -c 1 -i 16 -a 1 -x {0.0 4.0 16 ------- null}
r -t 1.123 -s 2 -d 3 -p cbr -e 500 -c 1 -i 19 -a 1 -x {0.0 4.0 19 ------- null}
+ -t 1.123 -s 3 -d 4 -p cbr -e 500 -c 1 -i 19 -a 1 -x {0.0 4.0 19 ------- null}
- -t 1.123 -s 3 -d 4 -p cbr -e 500 -c 1 -i 19 -a 1 -x {0.0 4.0 19 ------- null}
h -t 1.123 -s 3 -d 4 -p cbr -e 500 -c 1 -i 19 -a 1 -x {0.0 4.0 -1 ------- null}
r -t 1.124 -s 0 -d 2 -p cbr -e 500 -c 1 -i 22 -a 1 -x {0.0 4.0 22 ------- null}
+ -t 1.124 -s 2 -d 3 -p cbr -e 500 -c 1 -i 22 -a 1 -x {0.0 4.0 22 ------- null}
- -t 1.124 -s 2 -d 3 -p cbr -e 500 -c 1 -i 22 -a 1 -x {0.0 4.0 22 ------- null}
h -t 1.124 -s 2 -d 3 -p cbr -e 500 -c 1 -i 22 -a 1 -x {0.0 4.0 -1 ------- null}
+ -t 1.125 -s 0 -d 2 -p cbr -e 500 -c 1 -i 25 -a 1 -x {0.0 4.0 25 ------- null}
- -t 1.125 -s 0 -d 2 -p cbr -e 500 -c 1 -i 25 -a 1 -x {0.0 4.0 25 ------- null}
h -t 1.125 -s 0 -d 2 -p cbr -e 500 -c 1 -i 25 -a 1 -x {0.0 4.0 -1 ------- null}
r -t 1.127 -s 3 -d 4 -p cbr -e 500 -c 1 -i 17 -a 1 -x {0.0 4.0 17 ------- null}
r -t 1.128 -s 2 -d 3 -p cbr -e 500 -c 1 -i 20 -a 1 -x {0.0 4.0 20 ------- null}
+ -t 1.128 -s 3 -d 4 -p cbr -e 500 -c 1 -i 20 -a 1 -x {0.0 4.0 20 ------- null}
- -t 1.128 -s 3 -d 4 -p cbr -e 500 -c 1 -i 20 -a 1 -x {0.0 4.0 20 ------- null}
h -t 1.128 -s 3 -d 4 -p cbr -e 500 -c 1 -i 20 -a 1 -x {0.0 4.0 -1 ------- null}
r -t 1.129 -s 0 -d 2 -p cbr -e 500 -c 1 -i 23 -a 1 -x {0.0 4.0 23 ------- null}
+ -t 1.129 -s 2 -d 3 -p cbr -e 500 -c 1 -i 23 -a 1 -x {0.0 4.0 23 ------- null}
- -t 1.129 -s 2 -d 3 -p cbr -e 500 -c 1 -i 23 -a 1 -x {0.0 4.0 23 ------- null}
h -t 1.129 -s 2 -d 3 -p cbr -e 500 -c 1 -i 23 -a 1 -x {0.0 4.0 -1 ------- null}
+ -t 1.13 -s 0 -d 2 -p cbr -e 500 -c 1 -i 26 -a 1 -x {0.0 4.0 26 ------- null}
- -t 1.13 -s 0 -d 2 -p cbr -e 500 -c 1 -i 26 -a 1 -x {0.0 4.0 26 ------- null}
h -t 1.13 -s 0 -d 2 -p cbr -e 500 -c 1 -i 26 -a 1 -x {0.0 4.0 -1 ------- null}
r -t 1.132 -s 3 -d 4 -p cbr -e 500 -c 1 -i 18 -a 1 -x {0.0 4.0 18 ------- null}
r -t 1.133 -s 2 -d 3 -p cbr -e 500 -c 1 -i 21 -a 1 -x {0.0 4.0 21 ------- null}
+ -t 1.133 -s 3 -d 4 -p cbr -e 500 -c 1 -i 21 -a 1 -x {0.0 4.0 21 ------- null}
- -t 1.133 -s 3 -d 4 -p cbr -e 500 -c 1 -i 21 -a 1 -x {0.0 4.0 21 ------- null}
h -t 1.133 -s 3 -d 4 -p cbr -e 500 -c 1 -i 21 -a 1 -x {0.0 4.0 -1 ------- null}
r -t 1.134 -s 0 -d 2 -p cbr -e 500 -c 1 -i 24 -a 1 -x {0.0 4.0 24 ------- null}
+ -t 1.134 -s 2 -d 3 -p cbr -e 500 -c 1 -i 24 -a 1 -x {0.0 4.0 24 ------- null}
- -t 1.134 -s 2 -d 3 -p cbr -e 500 -c 1 -i 24 -a 1 -x {0.0 4.0 24 ------- null}
h -t 1.134 -s 2 -d 3 -p cbr -e 500 -c 1 -i 24 -a 1 -x {0.0 4.0 -1 ------- null}
+ -t 1.135 -s 0 -d 2 -p cbr -e 500 -c 1 -i 27 -a 1 -x {0.0 4.0 27 ------- null}
- -t 1.135 -s 0 -d 2 -p cbr -e 500 -c 1 -i 27 -a 1 -x {0.0 4.0 27 ------- null}
h -t 1.135 -s 0 -d 2 -p cbr -e 500 -c 1 -i 27 -a 1 -x {0.0 4.0 -1 ------- null}
r -t 1.137 -s 3 -d 4 -p cbr -e 500 -c 1 -i 19 -a 1 -x {0.0 4.0 19 ------- null}
r -t 1.138 -s 2 -d 3 -p cbr -e 500 -c 1 -i 22 -a 1 -x {0.0 4.0 22 ------- null}
+ -t 1.138 -s 3 -d 4 -p cbr -e 500 -c 1 -i 22 -a 1 -x {0.0 4.0 22 ------- null}
- -t 1.138 -s 3 -d 4 -p cbr -e 500 -c 1 -i 22 -a 1 -x {0.0 4.0 22 ------- null}
h -t 1.138 -s 3 -d 4 -p cbr -e 500 -c 1 -i 22 -a 1 -x {0.0 4.0 -1 ------- null}
r -t 1.139 -s 0 -d 2 -p cbr -e 500 -c 1 -i 25 -a 1 -x {0.0 4.0 25 ------- null}
+ -t 1.139 -s 2 -d 3 -p cbr -e 500 -c 1 -i 25 -a 1 -x {0.0 4.0 25 ------- null}
- -t 1.139 -s 2 -d 3 -p cbr -e 500 -c 1 -i 25 -a 1 -x {0.0 4.0 25 ------- null}
h -t 1.139 -s 2 -d 3 -p cbr -e 500 -c 1 -i 25 -a 1 -x {0.0 4.0 -1 ------- null}
+ -t 1.14 -s 0 -d 2 -p cbr -e 500 -c 1 -i 28 -a 1 -x {0.0 4.0 28 ------- null}
- -t 1.14 -s 0 -d 2 -p cbr -e 500 -c 1 -i 28 -a 1 -x {0.0 4.0 28 ------- null}
h -t 1.14 -s 0 -d 2 -p cbr -e 500 -c 1 -i 28 -a 1 -x {0.0 4.0 -1 ------- null}
r -t 1.142 -s 3 -d 4 -p cbr -e 500 -c 1 -i 20 -a 1 -x {0.0 4.0 20 ------- null}
r -t 1.143 -s 2 -d 3 -p cbr -e 500 -c 1 -i 23 -a 1 -x {0.0 4.0 23 ------- null}
+ -t 1.143 -s 3 -d 4 -p cbr -e 500 -c 1 -i 23 -a 1 -x {0.0 4.0 23 ------- null}
- -t 1.143 -s 3 -d 4 -p cbr -e 500 -c 1 -i 23 -a 1 -x {0.0 4.0 23 ------- null}
h -t 1.143 -s 3 -d 4 -p cbr -e 500 -c 1 -i 23 -a 1 -x {0.0 4.0 -1 ------- null}
r -t 1.144 -s 0 -d 2 -p cbr -e 500 -c 1 -i 26 -a 1 -x {0.0 4.0 26 ------- null}
+ -t 1.144 -s 2 -d 3 -p cbr -e 500 -c 1 -i 26 -a 1 -x {0.0 4.0 26 ------- null}
- -t 1.144 -s 2 -d 3 -p cbr -e 500 -c 1 -i 26 -a 1 -x {0.0 4.0 26 ------- null}
h -t 1.144 -s 2 -d 3 -p cbr -e 500 -c 1 -i 26 -a 1 -x {0.0 4.0 -1 ------- null}
+ -t 1.145 -s 0 -d 2 -p cbr -e 500 -c 1 -i 29 -a 1 -x {0.0 4.0 29 ------- null}
- -t 1.145 -s 0 -d 2 -p cbr -e 500 -c 1 -i 29 -a 1 -x {0.0 4.0 29 ------- null}
h -t 1.145 -s 0 -d 2 -p cbr -e 500 -c 1 -i 29 -a 1 -x {0.0 4.0 -1 ------- null}
r -t 1.147 -s 3 -d 4 -p cbr -e 500 -c 1 -i 21 -a 1 -x {0.0 4.0 21 ------- null}
r -t 1.148 -s 2 -d 3 -p cbr -e 500 -c 1 -i 24 -a 1 -x {0.0 4.0 24 ------- null}
+ -t 1.148 -s 3 -d 4 -p cbr -e 500 -c 1 -i 24 -a 1 -x {0.0 4.0 24 ------- null}
- -t 1.148 -s 3 -d 4 -p cbr -e 500 -c 1 -i 24 -a 1 -x {0.0 4.0 24 ------- null}
h -t 1.148 -s 3 -d 4 -p cbr -e 500 -c 1 -i 24 -a 1 -x {0.0 4.0 -1 ------- null}
r -t 1.149 -s 0 -d 2 -p cbr -e 500 -c 1 -i 27 -a 1 -x {0.0 4.0 27 ------- null}
+ -t 1.149 -s 2 -d 3 -p cbr -e 500 -c 1 -i 27 -a 1 -x {0.0 4.0 27 ------- null}
- -t 1.149 -s 2 -d 3 -p cbr -e 500 -c 1 -i 27 -a 1 -x {0.0 4.0 27 ------- null}
h -t 1.149 -s 2 -d 3 -p cbr -e 500 -c 1 -i 27 -a 1 -x {0.0 4.0 -1 ------- null}
+ -t 1.15 -s 0 -d 2 -p cbr -e 500 -c 1 -i 30 -a 1 -x {0.0 4.0 30 ------- null}
- -t 1.15 -s 0 -d 2 -p cbr -e 500 -c 1 -i 30 -a 1 -x {0.0 4.0 30 ------- null}
h -t 1.15 -s 0 -d 2 -p cbr -e 500 -c 1 -i 30 -a 1 -x {0.0 4.0 -1 ------- null}
r -t 1.152 -s 3 -d 4 -p cbr -e 500 -c 1 -i 22 -a 1 -x {0.0 4.0 22 ------- null}
r -t 1.153 -s 2 -d 3 -p cbr -e 500 -c 1 -i 25 -a 1 -x {0.0 4.0 25 ------- null}
+ -t 1.153 -s 3 -d 4 -p cbr -e 500 -c 1 -i 25 -a 1 -x {0.0 4.0 25 ------- null}
- -t 1.153 -s 3 -d 4 -p cbr -e 500 -c 1 -i 25 -a 1 -x {0.0 4.0 25 ------- null}
h -t 1.153 -s 3 -d 4 -p cbr -e 500 -c 1 -i 25 -a 1 -x {0.0 4.0 -1 ------- null}
r -t 1.154 -s 0 -d 2 -p cbr -e 500 -c 1 -i 28 -a 1 -x {0.0 4.0 28 ------- null}
+ -t 1.154 -s 2 -d 3 -p cbr -e 500 -c 1 -i 28 -a 1 -x {0.0 4.0 28 ------- null}
- -t 1.154 -s 2 -d 3 -p cbr -e 500 -c 1 -i 28 -a 1 -x {0.0 4.0 28 ------- null}
h -t 1.154 -s 2 -d 3 -p cbr -e 500 -c 1 -i 28 -a 1 -x {0.0 4.0 -1 ------- null}
+ -t 1.155 -s 0 -d 2 -p cbr -e 500 -c 1 -i 31 -a 1 -x {0.0 4.0 31 ------- null}
- -t 1.155 -s 0 -d 2 -p cbr -e 500 -c 1 -i 31 -a 1 -x {0.0 4.0 31 ------- null}
h -t 1.155 -s 0 -d 2 -p cbr -e 500 -c 1 -i 31 -a 1 -x {0.0 4.0 -1 ------- null}
r -t 1.157 -s 3 -d 4 -p cbr -e 500 -c 1 -i 23 -a 1 -x {0.0 4.0 23 ------- null}
r -t 1.158 -s 2 -d 3 -p cbr -e 500 -c 1 -i 26 -a 1 -x {0.0 4.0 26 ------- null}
+ -t 1.158 -s 3 -d 4 -p cbr -e 500 -c 1 -i 26 -a 1 -x {0.0 4.0 26 ------- null}
- -t 1.158 -s 3 -d 4 -p cbr -e 500 -c 1 -i 26 -a 1 -x {0.0 4.0 26 ------- null}
h -t 1.158 -s 3 -d 4 -p cbr -e 500 -c 1 -i 26 -a 1 -x {0.0 4.0 -1 ------- null}
r -t 1.159 -s 0 -d 2 -p cbr -e 500 -c 1 -i 29 -a 1 -x {0.0 4.0 29 ------- null}
+ -t 1.159 -s 2 -d 3 -p cbr -e 500 -c 1 -i 29 -a 1 -x {0.0 4.0 29 ------- null}
- -t 1.159 -s 2 -d 3 -p cbr -e 500 -c 1 -i 29 -a 1 -x {0.0 4.0 29 ------- null}
h -t 1.159 -s 2 -d 3 -p cbr -e 500 -c 1 -i 29 -a 1 -x {0.0 4.0 -1 ------- null}
+ -t 1.16 -s 0 -d 2 -p cbr -e 500 -c 1 -i 32 -a 1 -x {0.0 4.0 32 ------- null}
- -t 1.16 -s 0 -d 2 -p cbr -e 500 -c 1 -i 32 -a 1 -x {0.0 4.0 32 ------- null}
h -t 1.16 -s 0 -d 2 -p cbr -e 500 -c 1 -i 32 -a 1 -x {0.0 4.0 -1 ------- null}
r -t 1.162 -s 3 -d 4 -p cbr -e 500 -c 1 -i 24 -a 1 -x {0.0 4.0 24 ------- null}
r -t 1.163 -s 2 -d 3 -p cbr -e 500 -c 1 -i 27 -a 1 -x {0.0 4.0 27 ------- null}
+ -t 1.163 -s 3 -d 4 -p cbr -e 500 -c 1 -i 27 -a 1 -x {0.0 4.0 27 ------- null}
- -t 1.163 -s 3 -d 4 -p cbr -e 500 -c 1 -i 27 -a 1 -x {0.0 4.0 27 ------- null}
h -t 1.163 -s 3 -d 4 -p cbr -e 500 -c 1 -i 27 -a 1 -x {0.0 4.0 -1 ------- null}
r -t 1.164 -s 0 -d 2 -p cbr -e 500 -c 1 -i 30 -a 1 -x {0.0 4.0 30 ------- null}
+ -t 1.164 -s 2 -d 3 -p cbr -e 500 -c 1 -i 30 -a 1 -x {0.0 4.0 30 ------- null}
- -t 1.164 -s 2 -d 3 -p cbr -e 500 -c 1 -i 30 -a 1 -x {0.0 4.0 30 ------- null}
h -t 1.164 -s 2 -d 3 -p cbr -e 500 -c 1 -i 30 -a 1 -x {0.0 4.0 -1 ------- null}
+ -t 1.165 -s 0 -d 2 -p cbr -e 500 -c 1 -i 33 -a 1 -x {0.0 4.0 33 ------- null}
- -t 1.165 -s 0 -d 2 -p cbr -e 500 -c 1 -i 33 -a 1 -x {0.0 4.0 33 ------- null}
h -t 1.165 -s 0 -d 2 -p cbr -e 500 -c 1 -i 33 -a 1 -x {0.0 4.0 -1 ------- null}
r -t 1.167 -s 3 -d 4 -p cbr -e 500 -c 1 -i 25 -a 1 -x {0.0 4.0 25 ------- null}
r -t 1.168 -s 2 -d 3 -p cbr -e 500 -c 1 -i 28 -a 1 -x {0.0 4.0 28 ------- null}
+ -t 1.168 -s 3 -d 4 -p cbr -e 500 -c 1 -i 28 -a 1 -x {0.0 4.0 28 ------- null}
- -t 1.168 -s 3 -d 4 -p cbr -e 500 -c 1 -i 28 -a 1 -x {0.0 4.0 28 ------- null}
h -t 1.168 -s 3 -d 4 -p cbr -e 500 -c 1 -i 28 -a 1 -x {0.0 4.0 -1 ------- null}
r -t 1.169 -s 0 -d 2 -p cbr -e 500 -c 1 -i 31 -a 1 -x {0.0 4.0 31 ------- null}